TITLE = " Job Result " 
VARIABLES = "X","Y","Z", 
"Temperature" 

ZONE
DATAPACKING = BLOCK, ZONETYPE = FEBRICK, T = "Step=1 Inc=1"
STRANDID = 1,SOLUTIONTIME = 1
NODES= 275
ELEMENTS= 160
#### Increment:1
#### X
               0               1               1               0               0               1               1               0
               2               3               4               5               6               7               8               9
              10               2               3               4               5               6               7               8
               9              10               2               3               4               5               6               7
               8               9              10               2               3               4               5               6
               7               8               9              10               0               0               0               1
               1               1               1               1               1               0               0               0
               2               2               2               3               3               3               4               4
               4               5               5               5               6               6               6               7
               7               7               8               8               8               9               9               9
              10              10              10               2               2               2               3               3
               3               4               4               4               5               5               5               6
               6               6               7               7               7               8               8               8
               9               9               9              10              10              10               0               0
               0               1               1               1               0               0               0               1
               1               1               2               2               2               3               3               3
               4               4               4               5               5               5               6               6
               6               7               7               7               8               8               8               9
               9               9              10              10              10               2               2               2
               3               3               3               4               4               4               5               5
               5               6               6               6               7               7               7               8
               8               8               9               9               9              10              10              10
               0               0               0               0               0               0               0               0
               0               1               1               1               1               1               1               1
               1               1               2               2               2               2               2               2
               2               2               2               3               3               3               3               3
               3               3               3               3               4               4               4               4
               4               4               4               4               4               5               5               5
               5               5               5               5               5               5               6               6
               6               6               6               6               6               6               6               7
               7               7               7               7               7               7               7               7
               8               8               8               8               8               8               8               8
               8               9               9               9               9               9               9               9
               9               9              10              10              10              10              10              10
              10              10              10
#### Y
               0               0               0               0               1               1               1               1
               0               0               0               0               0               0               0               0
               0               0               0               0               0               0               0               0
               0               0               1               1               1               1               1               1
               1               1               1               1               1               1               1               1
               1               1               1               1               2               3               4               2
               3               4               2               3               4               2               3               4
               2               3               4               2               3               4               2               3
               4               2               3               4               2               3               4               2
               3               4               2               3               4               2               3               4
               2               3               4               2               3               4               2               3
               4               2               3               4               2               3               4               2
               3               4               2               3               4               2               3               4
               2               3               4               2               3               4               0               0
               0               0               0               0               1               1               1               1
               1               1               0               0               0               0               0               0
               0               0               0               0               0               0               0               0
               0               0               0               0               0               0               0               0
               0               0               0               0               0               1               1               1
               1               1               1               1               1               1               1               1
               1               1               1               1               1               1               1               1
               1               1               1               1               1               1               1               1
               2               2               2               3               3               3               4               4
               4               2               2               2               3               3               3               4
               4               4               2               2               2               3               3               3
               4               4               4               2               2               2               3               3
               3               4               4               4               2               2               2               3
               3               3               4               4               4               2               2               2
               3               3               3               4               4               4               2               2
               2               3               3               3               4               4               4               2
               2               2               3               3               3               4               4               4
               2               2               2               3               3               3               4               4
               4               2               2               2               3               3               3               4
               4               4               2               2               2               3               3               3
               4               4               4
#### Z
               0               0               1               1               0               0               1               1
               0               0               0               0               0               0               0               0
               0               1               1               1               1               1               1               1
               1               1               0               0               0               0               0               0
               0               0               0               1               1               1               1               1
               1               1               1               1               0               0               0               0
               0               0               1               1               1               1               1               1
               0               0               0               0               0               0               0               0
               0               0               0               0               0               0               0               0
               0               0               0               0               0               0               0               0
               0               0               0               1               1               1               1               1
               1               1               1               1               1               1               1               1
               1               1               1               1               1               1               1               1
               1               1               1               1               1               1               2               3
               4               2               3               4               2               3               4               2
               3               4               2               3               4               2               3               4
               2               3               4               2               3               4               2               3
               4               2               3               4               2               3               4               2
               3               4               2               3               4               2               3               4
               2               3               4               2               3               4               2               3
               4               2               3               4               2               3               4               2
               3               4               2               3               4               2               3               4
               2               3               4               2               3               4               2               3
               4               2               3               4               2               3               4               2
               3               4               2               3               4               2               3               4
               2               3               4               2               3               4               2               3
               4               2               3               4               2               3               4               2
               3               4               2               3               4               2               3               4
               2               3               4               2               3               4               2               3
               4               2               3               4               2               3               4               2
               3               4               2               3               4               2               3               4
               2               3               4               2               3               4               2               3
               4               2               3               4               2               3               4               2
               3               4               2               3               4               2               3               4
               2               3               4
#### Temperature
      -6.28e-010            11.6            11.6      -6.28e-010      -6.28e-010            11.6            11.6      -6.28e-010
            9.76              10            9.99              10            9.99              10            9.76            11.6
      -6.28e-010            9.76              10            9.99              10            9.99              10            9.76
            11.6      -6.28e-010            9.76              10            9.99              10            9.99              10
            9.76            11.6      -6.28e-010            9.76              10            9.99              10            9.99
              10            9.76            11.6      -6.28e-010      -6.28e-010      -6.28e-010      -6.28e-010            11.6
            11.6            11.6            11.6            11.6            11.6      -6.28e-010      -6.28e-010      -6.28e-010
            9.76            9.76            9.76              10              10              10            9.99            9.99
            9.99              10              10              10            9.99            9.99            9.99              10
              10              10            9.76            9.76            9.76            11.6            11.6            11.6
      -6.28e-010      -6.28e-010      -6.28e-010            9.76            9.76            9.76              10              10
              10            9.99            9.99            9.99              10              10              10            9.99
            9.99            9.99              10              10              10            9.76            9.76            9.76
            11.6            11.6            11.6      -6.28e-010      -6.28e-010      -6.28e-010      -6.28e-010      -6.28e-010
      -6.28e-010            11.6            11.6            11.6      -6.28e-010      -6.28e-010      -6.28e-010            11.6
            11.6            11.6            9.76            9.76            9.76              10              10              10
            9.99            9.99            9.99              10              10              10            9.99            9.99
            9.99              10              10              10            9.76            9.76            9.76            11.6
            11.6            11.6       -5.5e-010      -4.52e-010      -4.72e-010            9.76            9.76            9.76
              10              10              10            9.99            9.99            9.99              10              10
              10            9.99            9.99            9.99              10              10              10            9.76
            9.76            9.76            11.6            11.6            11.6       -5.5e-010      -4.52e-010      -4.72e-010
       -5.5e-010      -4.52e-010      -4.72e-010       -5.5e-010      -4.52e-010      -4.72e-010       -5.5e-010      -4.52e-010
      -4.72e-010            11.6            11.6            11.6            11.6            11.6            11.6            11.6
            11.6            11.6            9.76            9.76            9.76            9.76            9.76            9.76
            9.76            9.76            9.76              10              10              10              10              10
              10              10              10              10            9.99            9.99            9.99            9.99
            9.99            9.99            9.99            9.99            9.99              10              10              10
              10              10              10              10              10              10            9.99            9.99
            9.99            9.99            9.99            9.99            9.99            9.99            9.99              10
              10              10              10              10              10              10              10              10
            9.76            9.76            9.76            9.76            9.76            9.76            9.76            9.76
            9.76            11.6            11.6            11.6            11.6            11.6            11.6            11.6
            11.6            11.6       -5.5e-010      -4.52e-010      -4.72e-010       -5.5e-010      -4.52e-010      -4.72e-010
       -5.5e-010      -4.52e-010      -4.72e-010
#### Connectivity
       5       6       7       8       1       2       3       4
       6      27      36       7       2       9      18       3
      27      28      37      36       9      10      19      18
      28      29      38      37      10      11      20      19
      29      30      39      38      11      12      21      20
      30      31      40      39      12      13      22      21
      31      32      41      40      13      14      23      22
      32      33      42      41      14      15      24      23
      33      34      43      42      15      16      25      24
      34      35      44      43      16      17      26      25
      45      48      51      54       5       6       7       8
      46      49      52      55      45      48      51      54
      47      50      53      56      46      49      52      55
      48      57      84      51       6      27      36       7
      49      58      85      52      48      57      84      51
      50      59      86      53      49      58      85      52
      57      60      87      84      27      28      37      36
      58      61      88      85      57      60      87      84
      59      62      89      86      58      61      88      85
      60      63      90      87      28      29      38      37
      61      64      91      88      60      63      90      87
      62      65      92      89      61      64      91      88
      63      66      93      90      29      30      39      38
      64      67      94      91      63      66      93      90
      65      68      95      92      64      67      94      91
      66      69      96      93      30      31      40      39
      67      70      97      94      66      69      96      93
      68      71      98      95      67      70      97      94
      69      72      99      96      31      32      41      40
      70      73     100      97      69      72      99      96
      71      74     101      98      70      73     100      97
      72      75     102      99      32      33      42      41
      73      76     103     100      72      75     102      99
      74      77     104     101      73      76     103     100
      75      78     105     102      33      34      43      42
      76      79     106     103      75      78     105     102
      77      80     107     104      76      79     106     103
      78      81     108     105      34      35      44      43
      79      82     109     106      78      81     108     105
      80      83     110     107      79      82     109     106
       8       7     120     117       4       3     114     111
     117     120     121     118     111     114     115     112
     118     121     122     119     112     115     116     113
       7      36     150     120       3      18     123     114
     120     150     151     121     114     123     124     115
     121     151     152     122     115     124     125     116
      36      37     153     150      18      19     126     123
     150     153     154     151     123     126     127     124
     151     154     155     152     124     127     128     125
      37      38     156     153      19      20     129     126
     153     156     157     154     126     129     130     127
     154     157     158     155     127     130     131     128
      38      39     159     156      20      21     132     129
     156     159     160     157     129     132     133     130
     157     160     161     158     130     133     134     131
      39      40     162     159      21      22     135     132
     159     162     163     160     132     135     136     133
     160     163     164     161     133     136     137     134
      40      41     165     162      22      23     138     135
     162     165     166     163     135     138     139     136
     163     166     167     164     136     139     140     137
      41      42     168     165      23      24     141     138
     165     168     169     166     138     141     142     139
     166     169     170     167     139     142     143     140
      42      43     171     168      24      25     144     141
     168     171     172     169     141     144     145     142
     169     172     173     170     142     145     146     143
      43      44     174     171      25      26     147     144
     171     174     175     172     144     147     148     145
     172     175     176     173     145     148     149     146
      54      51     186     177       8       7     120     117
     177     186     187     178     117     120     121     118
     178     187     188     179     118     121     122     119
      55      52     189     180      54      51     186     177
     180     189     190     181     177     186     187     178
     181     190     191     182     178     187     188     179
      56      53     192     183      55      52     189     180
     183     192     193     184     180     189     190     181
     184     193     194     185     181     190     191     182
      51      84     195     186       7      36     150     120
     186     195     196     187     120     150     151     121
     187     196     197     188     121     151     152     122
      52      85     198     189      51      84     195     186
     189     198     199     190     186     195     196     187
     190     199     200     191     187     196     197     188
      53      86     201     192      52      85     198     189
     192     201     202     193     189     198     199     190
     193     202     203     194     190     199     200     191
      84      87     204     195      36      37     153     150
     195     204     205     196     150     153     154     151
     196     205     206     197     151     154     155     152
      85      88     207     198      84      87     204     195
     198     207     208     199     195     204     205     196
     199     208     209     200     196     205     206     197
      86      89     210     201      85      88     207     198
     201     210     211     202     198     207     208     199
     202     211     212     203     199     208     209     200
      87      90     213     204      37      38     156     153
     204     213     214     205     153     156     157     154
     205     214     215     206     154     157     158     155
      88      91     216     207      87      90     213     204
     207     216     217     208     204     213     214     205
     208     217     218     209     205     214     215     206
      89      92     219     210      88      91     216     207
     210     219     220     211     207     216     217     208
     211     220     221     212     208     217     218     209
      90      93     222     213      38      39     159     156
     213     222     223     214     156     159     160     157
     214     223     224     215     157     160     161     158
      91      94     225     216      90      93     222     213
     216     225     226     217     213     222     223     214
     217     226     227     218     214     223     224     215
      92      95     228     219      91      94     225     216
     219     228     229     220     216     225     226     217
     220     229     230     221     217     226     227     218
      93      96     231     222      39      40     162     159
     222     231     232     223     159     162     163     160
     223     232     233     224     160     163     164     161
      94      97     234     225      93      96     231     222
     225     234     235     226     222     231     232     223
     226     235     236     227     223     232     233     224
      95      98     237     228      94      97     234     225
     228     237     238     229     225     234     235     226
     229     238     239     230     226     235     236     227
      96      99     240     231      40      41     165     162
     231     240     241     232     162     165     166     163
     232     241     242     233     163     166     167     164
      97     100     243     234      96      99     240     231
     234     243     244     235     231     240     241     232
     235     244     245     236     232     241     242     233
      98     101     246     237      97     100     243     234
     237     246     247     238     234     243     244     235
     238     247     248     239     235     244     245     236
      99     102     249     240      41      42     168     165
     240     249     250     241     165     168     169     166
     241     250     251     242     166     169     170     167
     100     103     252     243      99     102     249     240
     243     252     253     244     240     249     250     241
     244     253     254     245     241     250     251     242
     101     104     255     246     100     103     252     243
     246     255     256     247     243     252     253     244
     247     256     257     248     244     253     254     245
     102     105     258     249      42      43     171     168
     249     258     259     250     168     171     172     169
     250     259     260     251     169     172     173     170
     103     106     261     252     102     105     258     249
     252     261     262     253     249     258     259     250
     253     262     263     254     250     259     260     251
     104     107     264     255     103     106     261     252
     255     264     265     256     252     261     262     253
     256     265     266     257     253     262     263     254
     105     108     267     258      43      44     174     171
     258     267     268     259     171     174     175     172
     259     268     269     260     172     175     176     173
     106     109     270     261     105     108     267     258
     261     270     271     262     258     267     268     259
     262     271     272     263     259     268     269     260
     107     110     273     264     106     109     270     261
     264     273     274     265     261     270     271     262
     265     274     275     266     262     271     272     263


ZONE
DATAPACKING = BLOCK, ZONETYPE = FEBRICK, T = "Step=1 Inc=2"
STRANDID = 1,SOLUTIONTIME = 2
NODES= 275
ELEMENTS= 160
VARSHARELIST = ([1,2,3]=1)
CONNECTIVITYSHAREZONE = 1
#### Increment:2
#### Temperature
      -5.28e-010            9.73            9.73      -5.28e-010      -5.28e-010            9.73            9.73      -5.28e-010
            10.3             9.9              10            9.99              10             9.9            10.3            9.73
      -5.28e-010            10.3             9.9              10            9.99              10             9.9            10.3
            9.73      -5.28e-010            10.3             9.9              10            9.99              10             9.9
            10.3            9.73      -5.28e-010            10.3             9.9              10            9.99              10
             9.9            10.3            9.73      -5.28e-010      -5.28e-010      -5.28e-010      -5.28e-010            9.73
            9.73            9.73            9.73            9.73            9.73      -5.28e-010      -5.28e-010      -5.28e-010
            10.3            10.3            10.3             9.9             9.9             9.9              10              10
              10            9.99            9.99            9.99              10              10              10             9.9
             9.9             9.9            10.3            10.3            10.3            9.73            9.73            9.73