TITLE = " Job Result " 
VARIABLES = "X","Y","Z", 
"Temperature" 

ZONE
DATAPACKING = BLOCK, ZONETYPE = FEBRICK, T = "Step=1 Inc=1"
STRANDID = 1,SOLUTIONTIME = 1
NODES= 10
ELEMENTS= 1
#### Increment:1
#### X
               0               1               1               0               0               1               1               0
             0.5             0.5
#### Y
               0               0               0               0               1               1               1               1
               1               0
#### Z
               0               0               1               1               0               0               1               1
             0.5             0.5
#### Temperature
           -1.#J           -1.#J           -1.#J           -1.#J           -1.#J           -1.#J           -1.#J           -1.#J
          1e+003          1e+003
#### Connectivity
       5       6       7       8       1       2       3       4


ZONE
DATAPACKING = BLOCK, ZONETYPE = FEBRICK, T = "Step=1 Inc=2"
STRANDID = 1,SOLUTIONTIME = 2
NODES= 10
ELEMENTS= 1
VARSHARELIST = ([1,2,3]=1)
CONNECTIVITYSHAREZONE = 1
#### Increment:2
#### Temperature
           -1.#J           -1.#J           -1.#J           -1.#J           -1.#J           -1.#J           -1.#J           -1.#J
          1e+003          1e+003

ZONE
DATAPACKING = BLOCK, ZONETYPE = FEBRICK, T = "Step=1 Inc=3"
STRANDID = 1,SOLUTIONTIME = 3
NODES= 10
ELEMENTS= 1
VARSHARELIST = ([1,2,3]=1)
CONNECTIVITYSHAREZONE = 2
#### Increment:3
#### Temperature
           -1.#J           -1.#J           -1.#J           -1.#J           -1.#J           -1.#J           -1.#J           -1.#J
          1e+003          1e+003

ZONE
DATAPACKING = BLOCK, ZONETYPE = FEBRICK, T = "Step=1 Inc=4"
STRANDID = 1,SOLUTIONTIME = 4
NODES= 10
ELEMENTS= 1
VARSHARELIST = ([1,2,3]=1)
CONNECTIVITYSHAREZONE = 3
#### Increment:4
#### Temperature
           -1.#J           -1.#J           -1.#J           -1.#J           -1.#J           -1.#J           -1.#J           -1.#J
          1e+003          1e+003

ZONE
DATAPACKING = BLOCK, ZONETYPE = FEBRICK, T = "Step=1 Inc=5"
STRANDID = 1,SOLUTIONTIME = 5
NODES= 10
ELEMENTS= 1
VARSHARELIST = ([1,2,3]=1)
CONNECTIVITYSHAREZONE = 4
#### Increment:5
#### Temperature
           -1.#J           -1.#J           -1.#J           -1.#J           -1.#J           -1.#J           -1.#J           -1.#J
          1e+003          1e+003

ZONE
DATAPACKING = BLOCK, ZONETYPE = FEBRICK, T = "Step=1 Inc=6"
STRANDID = 1,SOLUTIONTIME = 6
NODES= 10
ELEMENTS= 1
VARSHARELIST = ([1,2,3]=1)
CONNECTIVITYSHAREZONE = 5
#### Increment:6
#### Temperature
           -1.#J           -1.#J           -1.#J           -1.#J           -1.#J           -1.#J           -1.#J           -1.#J
          1e+003          1e+003

ZONE
DATAPACKING = BLOCK, ZONETYPE = FEBRICK, T = "Step=1 Inc=7"
STRANDID = 1,SOLUTIONTIME = 7
NODES= 10
ELEMENTS= 1
VARSHARELIST = ([1,2,3]=1)
CONNECTIVITYSHAREZONE = 6
#### Increment:7
#### Temperature
           -1.#J           -1.#J           -1.#J           -1.#J           -1.#J           -1.#J           -1.#J           -1.#J
          1e+003          1e+003

ZONE
DATAPACKING = BLOCK, ZONETYPE = FEBRICK, T = "Step=1 Inc=8"
STRANDID = 1,SOLUTIONTIME = 8
NODES= 10
ELEMENTS= 1
VARSHARELIST = ([1,2,3]=1)
CONNECTIVITYSHAREZONE = 7
#### Increment:8
#### Temperature
           -1.#J           -1.#J           -1.#J           -1.#J           -1.#J           -1.#J           -1.#J           -1.#J
          1e+003          1e+003

ZONE
DATAPACKING = BLOCK, ZONETYPE = FEBRICK, T = "Step=1 Inc=9"
STRANDID = 1,SOLUTIONTIME = 9
NODES= 10
ELEMENTS= 1
VARSHARELIST = ([1,2,3]=1)
CONNECTIVITYSHAREZONE = 8
#### Increment:9
#### Temperature
           -1.#J           -1.#J           -1.#J           -1.#J           -1.#J           -1.#J           -1.#J           -1.#J
          1e+003          1e+003

ZONE
DATAPACKING = BLOCK, ZONETYPE = FEBRICK, T = "Step=1 Inc=10"
STRANDID = 1,SOLUTIONTIME = 10
NODES= 10
ELEMENTS= 1
VARSHARELIST = ([1,2,3]=1)
CONNECTIVITYSHAREZONE = 9
#### Increment:10
#### Temperature
           -1.#J           -1.#J           -1.#J           -1.#J           -1.#J           -1.#J           -1.#J           -1.#J
          1e+003          1e+003

ZONE
DATAPACKING = BLOCK, ZONETYPE = FEBRICK, T = "Step=1 Inc=11"
STRANDID = 1,SOLUTIONTIME = 11
NODES= 10
ELEMENTS= 1
VARSHARELIST = ([1,2,3]=1)
CONNECTIVITYSHAREZONE = 10
#### Increment:11
#### Temperature
           -1.#J           -1.#J           -1.#J           -1.#J           -1.#J           -1.#J           -1.#J           -1.#J
          1e+003          1e+003

ZONE
DATAPACKING = BLOCK, ZONETYPE = FEBRICK, T = "Step=1 Inc=12"
STRANDID = 1,SOLUTIONTIME = 12
NODES= 10
ELEMENTS= 1
VARSHARELIST = ([1,2,3]=1)
CONNECTIVITYSHAREZONE = 11
#### Increment:12
#### Temperature
           -1.#J           -1.#J           -1.#J           -1.#J           -1.#J           -1.#J           -1.#J           -1.#J
          1e+003          1e+003

ZONE
DATAPACKING = BLOCK, ZONETYPE = FEBRICK, T = "Step=1 Inc=13"
STRANDID = 1,SOLUTIONTIME = 13
NODES= 10
ELEMENTS= 1
VARSHARELIST = ([1,2,3]=1)
CONNECTIVITYSHAREZONE = 12
#### Increment:13
#### Temperature
           -1.#J           -1.#J           -1.#J           -1.#J           -1.#J           -1.#J           -1.#J           -1.#J
          1e+003          1e+003

ZONE
DATAPACKING = BLOCK, ZONETYPE = FEBRICK, T = "Step=1 Inc=14"
STRANDID = 1,SOLUTIONTIME = 14
NODES= 10
ELEMENTS= 1
VARSHARELIST = ([1,2,3]=1)
CONNECTIVITYSHAREZONE = 13
#### Increment:14
#### Temperature
           -1.#J           -1.#J           -1.#J           -1.#J           -1.#J           -1.#J           -1.#J           -1.#J
          1e+003          1e+003

ZONE
DATAPACKING = BLOCK, ZONETYPE = FEBRICK, T = "Step=1 Inc=15"
STRANDID = 1,SOLUTIONTIME = 15
NODES= 10
ELEMENTS= 1
VARSHARELIST = ([1,2,3]=1)
CONNECTIVITYSHAREZONE = 14
#### Increment:15
#### Temperature
           -1.#J           -1.#J           -1.#J           -1.#J           -1.#J           -1.#J           -1.#J           -1.#J
          1e+003          1e+003

ZONE
DATAPACKING = BLOCK, ZONETYPE = FEBRICK, T = "Step=1 Inc=16"
STRANDID = 1,SOLUTIONTIME = 16
NODES= 10
ELEMENTS= 1
VARSHARELIST = ([1,2,3]=1)
CONNECTIVITYSHAREZONE = 15
#### Increment:16
#### Temperature
           -1.#J           -1.#J           -1.#J           -1.#J           -1.#J           -1.#J           -1.#J           -1.#J
          1e+003          1e+003

ZONE
DATAPACKING = BLOCK, ZONETYPE = FEBRICK, T = "Step=1 Inc=17"
STRANDID = 1,SOLUTIONTIME = 17
NODES= 10
ELEMENTS= 1
VARSHARELIST = ([1,2,3]=1)
CONNECTIVITYSHAREZONE = 16
#### Increment:17
#### Temperature
           -1.#J           -1.#J           -1.#J           -1.#J           -1.#J           -1.#J           -1.#J           -1.#J
          1e+003          1e+003

ZONE
DATAPACKING = BLOCK, ZONETYPE = FEBRICK, T = "Step=1 Inc=18"
STRANDID = 1,SOLUTIONTIME = 18
NODES= 10
ELEMENTS= 1
VARSHARELIST = ([1,2,3]=1)
CONNECTIVITYSHAREZONE = 17
#### Increment:18
#### Temperature
           -1.#J           -1.#J           -1.#J           -1.#J           -1.#J           -1.#J           -1.#J           -1.#J
          1e+003          1e+003

ZONE
DATAPACKING = BLOCK, ZONETYPE = FEBRICK, T = "Step=1 Inc=19"
STRANDID = 1,SOLUTIONTIME = 19
NODES= 10
ELEMENTS= 1
VARSHARELIST = ([1,2,3]=1)
CONNECTIVITYSHAREZONE = 18
#### Increment:19
#### Temperature
           -1.#J           -1.#J           -1.#J           -1.#J           -1.#J           -1.#J           -1.#J           -1.#J
          1e+003          1e+003

ZONE
DATAPACKING = BLOCK, ZONETYPE = FEBRICK, T = "Step=1 Inc=20"
STRANDID = 1,SOLUTIONTIME = 20
NODES= 10
ELEMENTS= 1
VARSHARELIST = ([1,2,3]=1)
CONNECTIVITYSHAREZONE = 19
#### Increment:20
#### Temperature
           -1.#J           -1.#J           -1.#J           -1.#J           -1.#J           -1.#J           -1.#J           -1.#J
          1e+003          1e+003

ZONE
DATAPACKING = BLOCK, ZONETYPE = FEBRICK, T = "Step=1 Inc=21"
STRANDID = 1,SOLUTIONTIME = 21
NODES= 10
ELEMENTS= 1
VARSHARELIST = ([1,2,3]=1)
CONNECTIVITYSHAREZONE = 20
#### Increment:21
#### Temperature
           -1.#J           -1.#J           -1.#J           -1.#J           -1.#J           -1.#J           -1.#J           -1.#J
          1e+003          1e+003

ZONE
DATAPACKING = BLOCK, ZONETYPE = FEBRICK, T = "Step=1 Inc=22"
STRANDID = 1,SOLUTIONTIME = 22
NODES= 10
ELEMENTS= 1
VARSHARELIST = ([1,2,3]=1)
CONNECTIVITYSHAREZONE = 21
#### Increment:22
#### Temperature
           -1.#J           -1.#J           -1.#J           -1.#J           -1.#J           -1.#J           -1.#J           -1.#J
          1e+003          1e+003

ZONE
DATAPACKING = BLOCK, ZONETYPE = FEBRICK, T = "Step=1 Inc=23"
STRANDID = 1,SOLUTIONTIME = 23
NODES= 10
ELEMENTS= 1
VARSHARELIST = ([1,2,3]=1)
CONNECTIVITYSHAREZONE = 22
#### Increment:23
#### Temperature
           -1.#J           -1.#J           -1.#J           -1.#J           -1.#J           -1.#J           -1.#J           -1.#J
          1e+003          1e+003

ZONE
DATAPACKING = BLOCK, ZONETYPE = FEBRICK, T = "Step=1 Inc=24"
STRANDID = 1,SOLUTIONTIME = 24
NODES= 10
ELEMENTS= 1
VARSHARELIST = ([1,2,3]=1)
CONNECTIVITYSHAREZONE = 23
#### Increment:24
#### Temperature
           -1.#J           -1.#J           -1.#J           -1.#J           -1.#J           -1.#J           -1.#J           -1.#J
          1e+003          1e+003

ZONE
DATAPACKING = BLOCK, ZONETYPE = FEBRICK, T = "Step=1 Inc=25"
STRANDID = 1,SOLUTIONTIME = 25
NODES= 10
ELEMENTS= 1
VARSHARELIST = ([1,2,3]=1)
CONNECTIVITYSHAREZONE = 24
#### Increment:25
#### Temperature
           -1.#J           -1.#J           -1.#J           -1.#J           -1.#J           -1.#J           -1.#J           -1.#J
          1e+003          1e+003

ZONE
DATAPACKING = BLOCK, ZONETYPE = FEBRICK, T = "Step=1 Inc=26"
STRANDID = 1,SOLUTIONTIME = 26
NODES= 10
ELEMENTS= 1
VARSHARELIST = ([1,2,3]=1)
CONNECTIVITYSHAREZONE = 25
#### Increment:26
#### Temperature
           -1.#J           -1.#J           -1.#J           -1.#J           -1.#J           -1.#J           -1.#J           -1.#J
          1e+003          1e+003

ZONE
DATAPACKING = BLOCK, ZONETYPE = FEBRICK, T = "Step=1 Inc=27"
STRANDID = 1,SOLUTIONTIME = 27
NODES= 10
ELEMENTS= 1
VARSHARELIST = ([1,2,3]=1)
CONNECTIVITYSHAREZONE = 26
#### Increment:27
#### Temperature
           -1.#J           -1.#J           -1.#J           -1.#J           -1.#J           -1.#J           -1.#J           -1.#J
          1e+003          1e+003

ZONE
DATAPACKING = BLOCK, ZONETYPE = FEBRICK, T = "Step=1 Inc=28"
STRANDID = 1,SOLUTIONTIME = 28
NODES= 10
ELEMENTS= 1
VARSHARELIST = ([1,2,3]=1)
CONNECTIVITYSHAREZONE = 27
#### Increment:28
#### Temperature
           -1.#J           -1.#J           -1.#J           -1.#J           -1.#J           -1.#J           -1.#J           -1.#J
          1e+003          1e+003

ZONE
DATAPACKING = BLOCK, ZONETYPE = FEBRICK, T = "Step=1 Inc=29"
STRANDID = 1,SOLUTIONTIME = 29
NODES= 10
ELEMENTS= 1
VARSHARELIST = ([1,2,3]=1)
CONNECTIVITYSHAREZONE = 28
#### Increment:29
#### Temperature
           -1.#J           -1.#J           -1.#J           -1.#J           -1.#J           -1.#J           -1.#J           -1.#J
          1e+003          1e+003

ZONE
DATAPACKING = BLOCK, ZONETYPE = FEBRICK, T = "Step=1 Inc=30"
STRANDID = 1,SOLUTIONTIME = 30
NODES= 10
ELEMENTS= 1
VARSHARELIST = ([1,2,3]=1)
CONNECTIVITYSHAREZONE = 29
#### Increment:30
#### Temperature
           -1.#J           -1.#J           -1.#J           -1.#J           -1.#J           -1.#J           -1.#J           -1.#J
          1e+003          1e+003

ZONE
DATAPACKING = BLOCK, ZONETYPE = FEBRICK, T = "Step=1 Inc=31"
STRANDID = 1,SOLUTIONTIME = 31
NODES= 10
ELEMENTS= 1
VARSHARELIST = ([1,2,3]=1)
CONNECTIVITYSHAREZONE = 30
#### Increment:31
#### Temperature
           -1.#J           -1.#J           -1.#J           -1.#J           -1.#J           -1.#J           -1.#J           -1.#J
          1e+003          1e+003

ZONE
DATAPACKING = BLOCK, ZONETYPE = FEBRICK, T = "Step=1 Inc=32"
STRANDID = 1,SOLUTIONTIME = 32
NODES= 10
ELEMENTS= 1
VARSHARELIST = ([1,2,3]=1)
CONNECTIVITYSHAREZONE = 31
#### Increment:32
#### Temperature
           -1.#J           -1.#J           -1.#J           -1.#J           -1.#J           -1.#J           -1.#J           -1.#J
          1e+003          1e+003

ZONE
DATAPACKING = BLOCK, ZONETYPE = FEBRICK, T = "Step=1 Inc=33"
STRANDID = 1,SOLUTIONTIME = 33
NODES= 10
ELEMENTS= 1
VARSHARELIST = ([1,2,3]=1)
CONNECTIVITYSHAREZONE = 32
#### Increment:33
#### Temperature
           -1.#J           -1.#J           -1.#J           -1.#J           -1.#J           -1.#J           -1.#J           -1.#J
          1e+003          1e+003

ZONE
DATAPACKING = BLOCK, ZONETYPE = FEBRICK, T = "Step=1 Inc=34"
STRANDID = 1,SOLUTIONTIME = 34
NODES= 10
ELEMENTS= 1
VARSHARELIST = ([1,2,3]=1)
CONNECTIVITYSHAREZONE = 33
#### Increment:34
#### Temperature
           -1.#J           -1.#J           -1.#J           -1.#J           -1.#J           -1.#J           -1.#J           -1.#J
          1e+003          1e+003

ZONE
DATAPACKING = BLOCK, ZONETYPE = FEBRICK, T = "Step=1 Inc=35"
STRANDID = 1,SOLUTIONTIME = 35
NODES= 10
ELEMENTS= 1
VARSHARELIST = ([1,2,3]=1)
CONNECTIVITYSHAREZONE = 34
#### Increment:35
#### Temperature
           -1.#J           -1.#J           -1.#J           -1.#J           -1.#J           -1.#J           -1.#J           -1.#J
          1e+003          1e+003

ZONE
DATAPACKING = BLOCK, ZONETYPE = FEBRICK, T = "Step=1 Inc=36"
STRANDID = 1,SOLUTIONTIME = 36
NODES= 10
ELEMENTS= 1
VARSHARELIST = ([1,2,3]=1)
CONNECTIVITYSHAREZONE = 35
#### Increment:36
#### Temperature
           -1.#J           -1.#J           -1.#J           -1.#J           -1.#J           -1.#J           -1.#J           -1.#J
          1e+003          1e+003

ZONE
DATAPACKING = BLOCK, ZONETYPE = FEBRICK, T = "Step=1 Inc=37"
STRANDID = 1,SOLUTIONTIME = 37
NODES= 10
ELEMENTS= 1
VARSHARELIST = ([1,2,3]=1)
CONNECTIVITYSHAREZONE = 36
#### Increment:37
#### Temperature
           -1.#J           -1.#J           -1.#J           -1.#J           -1.#J           -1.#J           -1.#J           -1.#J
          1e+003          1e+003

ZONE
DATAPACKING = BLOCK, ZONETYPE = FEBRICK, T = "Step=1 Inc=38"
STRANDID = 1,SOLUTIONTIME = 38
NODES= 10
ELEMENTS= 1
VARSHARELIST = ([1,2,3]=1)
CONNECTIVITYSHAREZONE = 37
#### Increment:38
#### Temperature
           -1.#J           -1.#J           -1.#J           -1.#J           -1.#J           -1.#J           -1.#J           -1.#J
          1e+003          1e+003

ZONE
DATAPACKING = BLOCK, ZONETYPE = FEBRICK, T = "Step=1 Inc=39"
STRANDID = 1,SOLUTIONTIME = 39
NODES= 10
ELEMENTS= 1
VARSHARELIST = ([1,2,3]=1)
CONNECTIVITYSHAREZONE = 38
#### Increment:39
#### Temperature
           -1.#J           -1.#J           -1.#J           -1.#J           -1.#J           -1.#J           -1.#J           -1.#J
          1e+003          1e+003

ZONE
DATAPACKING = BLOCK, ZONETYPE = FEBRICK, T = "Step=1 Inc=40"
STRANDID = 1,SOLUTIONTIME = 40
NODES= 10
ELEMENTS= 1
VARSHARELIST = ([1,2,3]=1)
CONNECTIVITYSHAREZONE = 39
#### Increment:40
#### Temperature
           -1.#J           -1.#J           -1.#J           -1.#J           -1.#J           -1.#J           -1.#J           -1.#J
          1e+003          1e+003

ZONE
DATAPACKING = BLOCK, ZONETYPE = FEBRICK, T = "Step=1 Inc=41"
STRANDID = 1,SOLUTIONTIME = 41
NODES= 10
ELEMENTS= 1
VARSHARELIST = ([1,2,3]=1)
CONNECTIVITYSHAREZONE = 40
#### Increment:41
#### Temperature
           -1.#J           -1.#J           -1.#J           -1.#J           -1.#J           -1.#J           -1.#J           -1.#J
          1e+003          1e+003

ZONE
DATAPACKING = BLOCK, ZONETYPE = FEBRICK, T = "Step=1 Inc=42"
STRANDID = 1,SOLUTIONTIME = 42
NODES= 10
ELEMENTS= 1
VARSHARELIST = ([1,2,3]=1)
CONNECTIVITYSHAREZONE = 41
#### Increment:42
#### Temperature
           -1.#J           -1.#J           -1.#J           -1.#J           -1.#J           -1.#J           -1.#J           -1.#J
          1e+003          1e+003

ZONE
DATAPACKING = BLOCK, ZONETYPE = FEBRICK, T = "Step=1 Inc=43"
STRANDID = 1,SOLUTIONTIME = 43
NODES= 10
ELEMENTS= 1
VARSHARELIST = ([1,2,3]=1)
CONNECTIVITYSHAREZONE = 42
#### Increment:43
#### Temperature
           -1.#J           -1.#J           -1.#J           -1.#J           -1.#J           -1.#J           -1.#J           -1.#J
          1e+003          1e+003

ZONE
DATAPACKING = BLOCK, ZONETYPE = FEBRICK, T = "Step=1 Inc=44"
STRANDID = 1,SOLUTIONTIME = 44
NODES= 10
ELEMENTS= 1
VARSHARELIST = ([1,2,3]=1)
CONNECTIVITYSHAREZONE = 43
#### Increment:44
#### Temperature
           -1.#J           -1.#J           -1.#J           -1.#J           -1.#J           -1.#J           -1.#J           -1.#J
          1e+003          1e+003

ZONE
DATAPACKING = BLOCK, ZONETYPE = FEBRICK, T = "Step=1 Inc=45"
STRANDID = 1,SOLUTIONTIME = 45
NODES= 10
ELEMENTS= 1
VARSHARELIST = ([1,2,3]=1)
CONNECTIVITYSHAREZONE = 44
#### Increment:45
#### Temperature
           -1.#J           -1.#J           -1.#J           -1.#J           -1.#J           -1.#J           -1.#J           -1.#J
          1e+003          1e+003

ZONE
DATAPACKING = BLOCK, ZONETYPE = FEBRICK, T = "Step=1 Inc=46"
STRANDID = 1,SOLUTIONTIME = 46
NODES= 10
ELEMENTS= 1
VARSHARELIST = ([1,2,3]=1)
CONNECTIVITYSHAREZONE = 45
#### Increment:46
#### Temperature
           -1.#J           -1.#J           -1.#J           -1.#J           -1.#J           -1.#J           -1.#J           -1.#J
          1e+003          1e+003

ZONE
DATAPACKING = BLOCK, ZONETYPE = FEBRICK, T = "Step=1 Inc=47"
STRANDID = 1,SOLUTIONTIME = 47
NODES= 10
ELEMENTS= 1
VARSHARELIST = ([1,2,3]=1)
CONNECTIVITYSHAREZONE = 46
#### Increment:47
#### Temperature
           -1.#J           -1.#J           -1.#J           -1.#J           -1.#J           -1.#J           -1.#J           -1.#J
          1e+003          1e+003

ZONE
DATAPACKING = BLOCK, ZONETYPE = FEBRICK, T = "Step=1 Inc=48"
STRANDID = 1,SOLUTIONTIME = 48
NODES= 10
ELEMENTS= 1
VARSHARELIST = ([1,2,3]=1)
CONNECTIVITYSHAREZONE = 47
#### Increment:48
#### Temperature
           -1.#J           -1.#J           -1.#J           -1.#J           -1.#J           -1.#J           -1.#J           -1.#J
          1e+003          1e+003

ZONE
DATAPACKING = BLOCK, ZONETYPE = FEBRICK, T = "Step=1 Inc=49"
STRANDID = 1,SOLUTIONTIME = 49
NODES= 10
ELEMENTS= 1
VARSHARELIST = ([1,2,3]=1)
CONNECTIVITYSHAREZONE = 48
#### Increment:49
#### Temperature
           -1.#J           -1.#J           -1.#J           -1.#J           -1.#J           -1.#J           -1.#J           -1.#J
          1e+003          1e+003

ZONE
DATAPACKING = BLOCK, ZONETYPE = FEBRICK, T = "Step=1 Inc=50"
STRANDID = 1,SOLUTIONTIME = 50
NODES= 10
ELEMENTS= 1
VARSHARELIST = ([1,2,3]=1)
CONNECTIVITYSHAREZONE = 49
#### Increment:50
#### Temperature
           -1.#J           -1.#J           -1.#J           -1.#J           -1.#J           -1.#J           -1.#J           -1.#J
          1e+003          1e+003

ZONE
DATAPACKING = BLOCK, ZONETYPE = FEBRICK, T = "Step=1 Inc=51"
STRANDID = 1,SOLUTIONTIME = 51
NODES= 10
ELEMENTS= 1
VARSHARELIST = ([1,2,3]=1)
CONNECTIVITYSHAREZONE = 50
#### Increment:51
#### Temperature
           -1.#J           -1.#J           -1.#J           -1.#J           -1.#J           -1.#J           -1.#J           -1.#J
          1e+003          1e+003

ZONE
DATAPACKING = BLOCK, ZONETYPE = FEBRICK, T = "Step=1 Inc=52"
STRANDID = 1,SOLUTIONTIME = 52
NODES= 10
ELEMENTS= 1
VARSHARELIST = ([1,2,3]=1)
CONNECTIVITYSHAREZONE = 51
#### Increment:52
#### Temperature
           -1.#J           -1.#J           -1.#J           -1.#J           -1.#J           -1.#J           -1.#J           -1.#J
          1e+003          1e+003

ZONE
DATAPACKING = BLOCK, ZONETYPE = FEBRICK, T = "Step=1 Inc=53"
STRANDID = 1,SOLUTIONTIME = 53
NODES= 10
ELEMENTS= 1
VARSHARELIST = ([1,2,3]=1)
CONNECTIVITYSHAREZONE = 52
#### Increment:53
#### Temperature
           -1.#J           -1.#J           -1.#J           -1.#J           -1.#J           -1.#J           -1.#J           -1.#J
          1e+003          1e+003

ZONE
DATAPACKING = BLOCK, ZONETYPE = FEBRICK, T = "Step=1 Inc=54"
STRANDID = 1,SOLUTIONTIME = 54
NODES= 10
ELEMENTS= 1
VARSHARELIST = ([1,2,3]=1)
CONNECTIVITYSHAREZONE = 53
#### Increment:54
#### Temperature
           -1.#J           -1.#J           -1.#J           -1.#J           -1.#J           -1.#J           -1.#J           -1.#J
          1e+003          1e+003

ZONE
DATAPACKING = BLOCK, ZONETYPE = FEBRICK, T = "Step=1 Inc=55"
STRANDID = 1,SOLUTIONTIME = 55
NODES= 10
ELEMENTS= 1
VARSHARELIST = ([1,2,3]=1)
CONNECTIVITYSHAREZONE = 54
#### Increment:55
#### Temperature
           -1.#J           -1.#J           -1.#J           -1.#J           -1.#J           -1.#J           -1.#J           -1.#J
          1e+003          1e+003

ZONE
DATAPACKING = BLOCK, ZONETYPE = FEBRICK, T = "Step=1 Inc=56"
STRANDID = 1,SOLUTIONTIME = 56
NODES= 10
ELEMENTS= 1
VARSHARELIST = ([1,2,3]=1)
CONNECTIVITYSHAREZONE = 55
#### Increment:56
#### Temperature
           -1.#J           -1.#J           -1.#J           -1.#J           -1.#J           -1.#J           -1.#J           -1.#J
          1e+003          1e+003

ZONE
DATAPACKING = BLOCK, ZONETYPE = FEBRICK, T = "Step=1 Inc=57"
STRANDID = 1,SOLUTIONTIME = 57
NODES= 10
ELEMENTS= 1
VARSHARELIST = ([1,2,3]=1)
CONNECTIVITYSHAREZONE = 56
#### Increment:57
#### Temperature
           -1.#J           -1.#J           -1.#J           -1.#J           -1.#J           -1.#J           -1.#J           -1.#J
          1e+003          1e+003

ZONE
DATAPACKING = BLOCK, ZONETYPE = FEBRICK, T = "Step=1 Inc=58"
STRANDID = 1,SOLUTIONTIME = 58
NODES= 10
ELEMENTS= 1
VARSHARELIST = ([1,2,3]=1)
CONNECTIVITYSHAREZONE = 57
#### Increment:58
#### Temperature
           -1.#J           -1.#J           -1.#J           -1.#J           -1.#J           -1.#J           -1.#J           -1.#J
          1e+003          1e+003

ZONE
DATAPACKING = BLOCK, ZONETYPE = FEBRICK, T = "Step=1 Inc=59"
STRANDID = 1,SOLUTIONTIME = 59
NODES= 10
ELEMENTS= 1
VARSHARELIST = ([1,2,3]=1)
CONNECTIVITYSHAREZONE = 58
#### Increment:59
#### Temperature
           -1.#J           -1.#J           -1.#J           -1.#J           -1.#J           -1.#J           -1.#J           -1.#J
          1e+003          1e+003

ZONE
DATAPACKING = BLOCK, ZONETYPE = FEBRICK, T = "Step=1 Inc=60"
STRANDID = 1,SOLUTIONTIME = 60
NODES= 10
ELEMENTS= 1
VARSHARELIST = ([1,2,3]=1)
CONNECTIVITYSHAREZONE = 59
#### Increment:60
#### Temperature
           -1.#J           -1.#J           -1.#J           -1.#J           -1.#J           -1.#J           -1.#J           -1.#J
          1e+003          1e+003

ZONE
DATAPACKING = BLOCK, ZONETYPE = FEBRICK, T = "Step=1 Inc=61"
STRANDID = 1,SOLUTIONTIME = 61
NODES= 10
ELEMENTS= 1
VARSHARELIST = ([1,2,3]=1)
CONNECTIVITYSHAREZONE = 60
#### Increment:61
#### Temperature
           -1.#J           -1.#J           -1.#J           -1.#J           -1.#J           -1.#J           -1.#J           -1.#J
          1e+003          1e+003

ZONE
DATAPACKING = BLOCK, ZONETYPE = FEBRICK, T = "Step=1 Inc=62"
STRANDID = 1,SOLUTIONTIME = 62
NODES= 10
ELEMENTS= 1
VARSHARELIST = ([1,2,3]=1)
CONNECTIVITYSHAREZONE = 61
#### Increment:62
#### Temperature
           -1.#J           -1.#J           -1.#J           -1.#J           -1.#J           -1.#J           -1.#J           -1.#J
          1e+003          1e+003

ZONE
DATAPACKING = BLOCK, ZONETYPE = FEBRICK, T = "Step=1 Inc=63"
STRANDID = 1,SOLUTIONTIME = 63
NODES= 10
ELEMENTS= 1
VARSHARELIST = ([1,2,3]=1)
CONNECTIVITYSHAREZONE = 62
#### Increment:63
#### Temperature
           -1.#J           -1.#J           -1.#J           -1.#J           -1.#J           -1.#J           -1.#J           -1.#J
          1e+003          1e+003

ZONE
DATAPACKING = BLOCK, ZONETYPE = FEBRICK, T = "Step=1 Inc=64"
STRANDID = 1,SOLUTIONTIME = 64
NODES= 10
ELEMENTS= 1
VARSHARELIST = ([1,2,3]=1)
CONNECTIVITYSHAREZONE = 63
#### Increment:64
#### Temperature
           -1.#J           -1.#J           -1.#J           -1.#J           -1.#J           -1.#J           -1.#J           -1.#J
          1e+003          1e+003

ZONE
DATAPACKING = BLOCK, ZONETYPE = FEBRICK, T = "Step=1 Inc=65"
STRANDID = 1,SOLUTIONTIME = 65
NODES= 10
ELEMENTS= 1
VARSHARELIST = ([1,2,3]=1)
CONNECTIVITYSHAREZONE = 64
#### Increment:65
#### Temperature
           -1.#J           -1.#J           -1.#J           -1.#J           -1.#J           -1.#J           -1.#J           -1.#J
          1e+003          1e+003

ZONE
DATAPACKING = BLOCK, ZONETYPE = FEBRICK, T = "Step=1 Inc=66"
STRANDID = 1,SOLUTIONTIME = 66
NODES= 10
ELEMENTS= 1
VARSHARELIST = ([1,2,3]=1)
CONNECTIVITYSHAREZONE = 65
#### Increment:66
#### Temperature
           -1.#J           -1.#J           -1.#J           -1.#J           -1.#J           -1.#J           -1.#J           -1.#J
          1e+003          1e+003

ZONE
DATAPACKING = BLOCK, ZONETYPE = FEBRICK, T = "Step=1 Inc=67"
STRANDID = 1,SOLUTIONTIME = 67
NODES= 10
ELEMENTS= 1
VARSHARELIST = ([1,2,3]=1)
CONNECTIVITYSHAREZONE = 66
#### Increment:67
#### Temperature
           -1.#J           -1.#J           -1.#J           -1.#J           -1.#J           -1.#J           -1.#J           -1.#J
          1e+003          1e+003

ZONE
DATAPACKING = BLOCK, ZONETYPE = FEBRICK, T = "Step=1 Inc=68"
STRANDID = 1,SOLUTIONTIME = 68
NODES= 10
ELEMENTS= 1
VARSHARELIST = ([1,2,3]=1)
CONNECTIVITYSHAREZONE = 67
#### Increment:68
#### Temperature
           -1.#J           -1.#J           -1.#J           -1.#J           -1.#J           -1.#J           -1.#J           -1.#J
          1e+003          1e+003

ZONE
DATAPACKING = BLOCK, ZONETYPE = FEBRICK, T = "Step=1 Inc=69"
STRANDID = 1,SOLUTIONTIME = 69
NODES= 10
ELEMENTS= 1
VARSHARELIST = ([1,2,3]=1)
CONNECTIVITYSHAREZONE = 68
#### Increment:69
#### Temperature
           -1.#J           -1.#J           -1.#J           -1.#J           -1.#J           -1.#J           -1.#J           -1.#J
          1e+003          1e+003

ZONE
DATAPACKING = BLOCK, ZONETYPE = FEBRICK, T = "Step=1 Inc=70"
STRANDID = 1,SOLUTIONTIME = 70
NODES= 10
ELEMENTS= 1
VARSHARELIST = ([1,2,3]=1)
CONNECTIVITYSHAREZONE = 69
#### Increment:70
#### Temperature
           -1.#J           -1.#J           -1.#J           -1.#J           -1.#J           -1.#J           -1.#J           -1.#J
          1e+003          1e+003

ZONE
DATAPACKING = BLOCK, ZONETYPE = FEBRICK, T = "Step=1 Inc=71"
STRANDID = 1,SOLUTIONTIME = 71
NODES= 10
ELEMENTS= 1
VARSHARELIST = ([1,2,3]=1)
CONNECTIVITYSHAREZONE = 70
#### Increment:71
#### Temperature
           -1.#J           -1.#J           -1.#J           -1.#J           -1.#J           -1.#J           -1.#J           -1.#J
          1e+003          1e+003

ZONE
DATAPACKING = BLOCK, ZONETYPE = FEBRICK, T = "Step=1 Inc=72"
STRANDID = 1,SOLUTIONTIME = 72
NODES= 10
ELEMENTS= 1
VARSHARELIST = ([1,2,3]=1)
CONNECTIVITYSHAREZONE = 71
#### Increment:72
#### Temperature
           -1.#J           -1.#J           -1.#J           -1.#J           -1.#J           -1.#J           -1.#J           -1.#J
          1e+003          1e+003

ZONE
DATAPACKING = BLOCK, ZONETYPE = FEBRICK, T = "Step=1 Inc=73"
STRANDID = 1,SOLUTIONTIME = 73
NODES= 10
ELEMENTS= 1
VARSHARELIST = ([1,2,3]=1)
CONNECTIVITYSHAREZONE = 72
#### Increment:73
#### Temperature
           -1.#J           -1.#J           -1.#J           -1.#J           -1.#J           -1.#J           -1.#J           -1.#J
          1e+003          1e+003

ZONE
DATAPACKING = BLOCK, ZONETYPE = FEBRICK, T = "Step=1 Inc=74"
STRANDID = 1,SOLUTIONTIME = 74
NODES= 10
ELEMENTS= 1
VARSHARELIST = ([1,2,3]=1)
CONNECTIVITYSHAREZONE = 73
#### Increment:74
#### Temperature
           -1.#J           -1.#J           -1.#J           -1.#J           -1.#J           -1.#J           -1.#J           -1.#J
          1e+003          1e+003

ZONE
DATAPACKING = BLOCK, ZONETYPE = FEBRICK, T = "Step=1 Inc=75"
STRANDID = 1,SOLUTIONTIME = 75
NODES= 10
ELEMENTS= 1
VARSHARELIST = ([1,2,3]=1)
CONNECTIVITYSHAREZONE = 74
#### Increment:75
#### Temperature
           -1.#J           -1.#J           -1.#J           -1.#J           -1.#J           -1.#J           -1.#J           -1.#J
          1e+003          1e+003

ZONE
DATAPACKING = BLOCK, ZONETYPE = FEBRICK, T = "Step=1 Inc=76"
STRANDID = 1,SOLUTIONTIME = 76
NODES= 10
ELEMENTS= 1
VARSHARELIST = ([1,2,3]=1)
CONNECTIVITYSHAREZONE = 75
#### Increment:76
#### Temperature
           -1.#J           -1.#J           -1.#J           -1.#J           -1.#J           -1.#J           -1.#J           -1.#J
          1e+003          1e+003

ZONE
DATAPACKING = BLOCK, ZONETYPE = FEBRICK, T = "Step=1 Inc=77"
STRANDID = 1,SOLUTIONTIME = 77
NODES= 10
ELEMENTS= 1
VARSHARELIST = ([1,2,3]=1)
CONNECTIVITYSHAREZONE = 76
#### Increment:77
#### Temperature
           -1.#J           -1.#J           -1.#J           -1.#J           -1.#J           -1.#J           -1.#J           -1.#J
          1e+003          1e+003

ZONE
DATAPACKING = BLOCK, ZONETYPE = FEBRICK, T = "Step=1 Inc=78"
STRANDID = 1,SOLUTIONTIME = 78
NODES= 10
ELEMENTS= 1
VARSHARELIST = ([1,2,3]=1)
CONNECTIVITYSHAREZONE = 77
#### Increment:78
#### Temperature
           -1.#J           -1.#J           -1.#J           -1.#J           -1.#J           -1.#J           -1.#J           -1.#J
          1e+003          1e+003

ZONE
DATAPACKING = BLOCK, ZONETYPE = FEBRICK, T = "Step=1 Inc=79"
STRANDID = 1,SOLUTIONTIME = 79
NODES= 10
ELEMENTS= 1
VARSHARELIST = ([1,2,3]=1)
CONNECTIVITYSHAREZONE = 78
#### Increment:79
#### Temperature
           -1.#J           -1.#J           -1.#J           -1.#J           -1.#J           -1.#J           -1.#J           -1.#J
          1e+003          1e+003

ZONE
DATAPACKING = BLOCK, ZONETYPE = FEBRICK, T = "Step=1 Inc=80"
STRANDID = 1,SOLUTIONTIME = 80
NODES= 10
ELEMENTS= 1